LAMMPS data file via write_data, version 2 Aug 2023, timestep = 50001, units = lj

11000 atoms
2 atom types
9500 bonds
2 bond types

-0.5165889601399102 20.516588960135756 xlo xhi
-0.5165889601399102 20.516588960135756 ylo yhi
-0.23218796603092268 28.622187969589877 zlo zhi

Masses

1 1
2 1


Atoms # full

6648 333 1 0 0.7030783984216419 0.040578307930391744 1.203589456032445 0 1 0
6649 333 1 0 0.3267199676598077 -0.17076891904866093 0.39108896582738284 0 1 0
6650 333 1 0 0.8791588716597482 0.6303629981435664 0.20245354431276594 0 1 0
6641 333 1 0 1.677728204580672 0.4064061442067226 0.913097813093777 0 1 0
4536 227 1 0 2.252699908855568 0.7335295260725104 0.013670645758622528 0 0 0
4535 227 1 0 1.6487725719981698 -0.05193485994795283 0.00846407344723238 0 0 0
6643 333 1 0 2.630633832837232 0.08175571572637164 0.5977165869224725 0 1 0
5 1 1 0 3.6440111382975946 0.4752242049029973 0.47115213537384987 0 0 0
6642 333 1 0 2.469983297587968 0.8603355095579709 1.1658914885025091 0 1 0
6735 337 1 0 4.84124983585865 0.3486848948248641 0.5276515358185208 0 1 0
8101 406 1 0 4.127696217584011 -0.29852678755611495 1.0706662061370082 0 1 0
6736 337 1 0 5.573707740941361 0.7992736721774111 0.07956049784935085 0 1 0
626 32 1 0 5.974829067286974 0.298372232852554 0.8638383540005891 0 1 0
6739 337 1 0 5.714070953457875 -0.4218446510308478 0.055480612639723516 0 1 0
624 32 1 0 7.091331589457888 0.5699407776971935 0.6613932097980493 0 1 0
1802 91 1 0 6.497960087277765 0.20630874494226792 -0.09752217419613368 1 0 0
3414 171 1 0 8.952068061218936 0.40522224747584834 1.085623128729354 0 1 1
3413 171 1 0 9.159565311963554 -0.38855293916544803 0.5452552546968427 0 1 1
623 32 1 0 7.986664404783233 0.3403697941405941 0.4012533027608441 0 1 0
3443 173 1 0 10.165266297333309 0.23762060151352105 0.06602226470309579 -1 0 1
9042 453 1 0 11.356526185200416 -0.08064741442671519 0.3264635934453681 0 1 0
9041 453 1 0 10.975119025606148 0.7465679926569003 0.044897769960038816 0 1 0
694 35 1 0 13.073340378323369 -0.01146058734345512 0.4970524483874599 0 0 0
8865 444 1 0 12.271176622452863 0.8257168038591735 0.23889023098002043 0 1 1
553 28 1 0 13.0514251382801 0.8709031888780657 1.0221592458783346 -1 0 0
550 28 1 0 14.255783833987353 0.728545439617427 0.08139998315305529 -1 0 0
10803 1303 2 0 14.527865027892167 -0.04313059981357892 0.8377009523973771 0 0 0
548 28 1 0 15.332314908283676 0.8339911133086085 0.5446630809428563 -1 0 0
6142 308 1 0 16.390482544438935 -0.5012307951416324 0.20556702073499308 0 2 0
6141 308 1 0 16.691174917018696 0.24970363243216676 0.7506576600396665 0 2 0
3912 196 1 0 17.529974699476632 0.8732912573638322 0.8815781780920495 -1 0 1
3911 196 1 0 17.78476185578121 0.3142086130360253 0.10873625526992178 -1 0 1
10308 808 2 0 18.53179094572458 0.4665785222612884 0.7621791937901782 1 1 0
10098 598 2 0 18.821247313353517 -0.25643228425587467 0.19932799221814976 0 0 0
4529 227 1 0 19.73437765997074 0.18311697515136316 1.0264998559929992 -1 0 0
4530 227 1 0 20.322919718935655 -0.3358975077655977 0.4745266577636216 -1 0 0
9941 498 1 0 -0.25252047405556877 1.0805951876940445 0.6684123832005308 0 1 1
4539 227 1 0 0.903445850650768 1.3727572328824276 1.2101901904555092 0 0 0
4537 227 1 0 1.6809465910721966 1.3999515105914568 0.36055782144277587 0 0 0
4538 227 1 0 0.9548312409834828 2.0035242144439342 0.5276459340871223 0 0 0
8109 406 1 0 2.83354803555658 1.7393352634787966 0.37124280359152356 0 1 0
4 1 1 0 4.234755055322078 1.076545538606203 -0.07674282301462153 0 0 0
8108 406 1 0 3.829215444015154 1.9170867243018268 0.3450350957601004 0 1 0
6 1 1 0 3.709443868735973 1.197232554594879 1.1694172476151494 0 0 0
3 1 1 0 4.897074081008189 1.6847456604925903 0.0980169137927952 0 0 0
7 1 1 0 4.4538243409821945 1.7056158649282627 1.1523071786258097 0 0 0
2 1 1 0 5.6278183363866265 1.7360009291411451 0.7544753827941793 0 0 0
2889 145 1 0 7.803082414118653 1.3934755358540483 0.7745320948031779 0 0 1
2887 145 1 0 7.780635598300322 1.9953838227866973 -0.06457984129387857 0 0 1
10851 1351 2 0 6.525967856138464 1.4986511379118506 0.333449210666794 1 0 1
2888 145 1 0 8.322531489349938 1.1889280943317417 0.0023132908604688285 0 0 1
4496 225 1 0 9.714184179930347 1.9537435154062992 0.8365035278635511 -1 1 1
4497 225 1 0 9.826203415527644 0.9614333722461416 0.6550686048437128 -1 1 1
555 28 1 0 11.34164627939637 0.9537600966035803 1.0476143917765397 -1 0 0
3454 173 1 0 10.706464784008102 1.9429862829475026 0.4704811160410477 -1 0 1
10543 1043 2 0 13.240831594442295 2.2539118490693024 0.9891240754817757 0 1 0
556 28 1 0 12.201945012747798 1.5368423723962352 1.1174315361367566 -1 0 0
551 28 1 0 13.70546841018458 1.5353301320511492 -0.008244501825122125 -1 0 0
8648 433 1 0 14.768420725291168 1.7881937719555303 0.7384892330652928 0 1 0
552 28 1 0 13.830622233853866 1.4557111839451657 0.8847839342755812 -1 0 0
546 28 1 0 16.007880702119927 1.272662115505502 -0.2283829405481974 -1 0 0
3913 196 1 0 16.672692651933183 1.3707111089037305 1.0604326973382017 -1 0 1
543 28 1 0 16.84774020256352 2.268519576115151 0.6780766873716033 -1 0 0
1897 95 1 0 17.36040166274161 1.5990516527387961 0.10689316782497238 -1 0 1
9334 467 1 0 18.650393137826637 1.5872565254940643 0.7838382587393365 0 1 1
9335 467 1 0 18.199430467753267 2.169726438565092 0.1979070125730212 0 1 1
9340 467 1 0 19.26259467801542 0.9403579589423264 0.1741933226839435 0 1 1
10291 791 2 0 19.918301731606594 2.2458364704365805 1.112107925246603 1 -1 -1
9949 498 1 0 20.43079516780641 2.272219553765354 0.12082426280947757 -1 1 1
9943 498 1 0 0.0006119300793089311 2.482586199002536 0.8892169629240614 0 1 1
9946 498 1 0 0.1068024500642395 3.1907122759796134 0.056756223593955046 0 1 1
9945 498 1 0 0.5402948950148129 3.6284053059343533 0.7525337417108154 0 1 1
10987 1487 2 0 1.915993944871929 2.3121407406320884 1.0597347217853756 2 1 1
1465 74 1 0 1.6346153004959265 3.287950939632839 0.508189181430975 0 0 1
4343 218 1 0 2.450016495231143 2.681505302537831 0.16483176687532203 0 0 1
4344 218 1 0 2.6682053053873243 3.2285572566473055 0.9434560380034144 0 0 1
4345 218 1 0 3.239074674188082 2.4563754780245213 1.0392362286447592 0 0 1
4342 218 1 0 3.2098677885106315 3.1972497348898736 -0.13427641357844988 0 0 1
4346 218 1 0 4.137584541452342 2.778725727656211 0.9571993118992653 0 0 1
4348 218 1 0 5.264160356778725 2.91420161855099 0.9009915043012908 0 0 1
4349 218 1 0 6.176322884556932 2.6811291249527764 0.7101346048269205 0 0 1
4350 218 1 0 6.743187556644039 2.4769504319538864 -0.05291179315718028 0 0 1
1720 86 1 0 7.719990122460358 2.5847000379982417 0.805629974897006 -1 0 0
4351 218 1 0 6.737964338639945 3.4740377655033905 0.15073751286129772 0 0 1
10001 501 2 0 8.044408437725993 3.4790591585854163 0.5243430385162323 0 -1 -1
4495 225 1 0 8.827681406297552 2.327731847366478 0.7441610213940403 -1 1 1
4494 225 1 0 9.058327672405184 3.1024824680360052 0.1378450595187206 -1 1 1
3456 173 1 0 10.69064925344715 2.897815042534132 0.8912867830521847 -1 0 1
3453 173 1 0 10.345630721528405 2.6490161203871994 -0.10287103509998473 -1 0 1
3457 173 1 0 10.977746270125357 3.3792949383346227 0.11727086826294116 -1 0 1
4308 216 1 0 11.669755792255865 3.306330797847592 1.174646850970866 0 0 0
10769 1269 2 0 12.054205620176095 2.580178192817168 0.510777196656507 1 1 1
10366 866 2 0 12.107947470504271 3.6589901344656415 -0.03064323360300019 -1 1 0
8659 433 1 0 13.551685245688425 3.464633394206391 0.34412753466560364 0 1 0
8660 433 1 0 13.982066844811657 2.6415222535252263 0.45629440635122936 0 1 0
8647 433 1 0 15.616170245941284 2.29979509090263 0.8464284312211623 0 1 0
544 28 1 0 16.29231486926495 2.3902116239437174 -0.11763035769957988 -1 0 0
8645 433 1 0 14.929265502122558 3.3671187515910765 1.0491914587335673 0 1 0
8646 433 1 0 15.808545904214935 3.2025185769214333 0.705291421291895 0 1 0
8649 433 1 0 14.927991700392413 2.597049311507895 0.1785904098514567 0 1 0
1899 95 1 0 17.001799043226093 3.1121418126615166 -0.07191907596872771 -1 0 1
7190 360 1 0 19.00790504081311 2.9330635599076516 0.7400313111327227 0 1 0
3136 157 1 0 18.027779202112054 3.1426271423094416 0.851437083811021 -1 1 0
7191 360 1 0 18.81834100426612 2.962322902633845 -0.16061538217592705 0 1 0
10975 1475 2 0 20.00167732429975 3.1741039705475984 1.0965794932022022 -1 0 0
9948 498 1 0 19.781987447815276 2.8818521918782274 0.0472455312509141 -1 1 1
6232 312 1 0 0.20743217090830934 4.947592995800569 0.9528699244763428 1 0 0
1468 74 1 0 1.0777641177008594 4.740951867934915 0.22377362725034708 0 0 1
1464 74 1 0 2.0092321670946833 3.993513556740676 0.04863170550102752 0 0 1
1466 74 1 0 1.4320453532861888 4.142903268745441 0.9147895820201449 0 0 1
1467 74 1 0 1.647238553446034 5.046594938661984 0.9785481965574465 0 0 1
10899 1399 2 0 3.5785483215830736 3.7926002230370512 0.8301278047238885 2 0 1
1462 74 1 0 3.3878459482699643 4.24064066108573 0.0150797757447254 0 0 1
1463 74 1 0 2.7018989131888764 4.388975706487907 0.6359715179743946 0 0 1
5180 259 1 0 3.5752384829578023 4.7415201256167165 0.9316807819407464 1 1 1
2625 132 1 0 5.039525339715733 4.209670020811474 0.8220221722366768 0 0 0
5179 259 1 0 4.245930240622287 4.692848588229389 0.2627533335887778 1 1 1
2635 132 1 0 4.978425652150811 4.121624653388093 -0.1446070963622612 0 0 0
2626 132 1 0 5.349736776298566 5.038742362485441 0.5304042724120462 0 0 0
2621 132 1 0 6.056220489874348 4.157330971692325 0.6437361834049121 0 0 0
3663 184 1 0 7.425084592978986 4.6173944398900515 0.20297602699031822 0 0 0
4352 218 1 0 7.159129337511027 3.906749490716674 0.8667244432019738 0 0 1
10695 1195 2 0 8.669849227796512 4.920537126315274 0.8201741449065602 -1 1 2
4493 225 1 0 8.92791075336634 4.033592540128521 0.21732587980684295 -1 1 1
3664 184 1 0 8.200135112677744 5.066267468480422 -0.04581800984635368 0 0 0
4487 225 1 0 10.264405865862141 3.901407018829719 1.0167310605014284 -1 1 1
4488 225 1 0 9.964757679069137 4.171824645265583 0.11905070630193992 -1 1 1
246 13 1 0 11.571391394057452 4.884573343309119 0.33240349738227 1 0 0
245 13 1 0 11.369174020235175 4.167769030543034 0.9311660598450477 1 0 0
8658 433 1 0 12.967854106913265 4.078006984076543 -0.17010506851753143 0 1 0
244 13 1 0 12.303411563927435 4.314717030961292 1.042300497797498 1 0 0
7900 395 1 0 13.26479347657859 4.639686066562163 0.7976003138713487 0 0 1
10886 1386 2 0 14.38485267546579 4.783315363630251 0.688862723022047 2 1 1
8642 433 1 0 15.645499088323028 4.226118891394741 0.906614176506897 0 1 0
8641 433 1 0 15.722503393592259 4.631612899450542 0.021248327458604107 0 1 0
8655 433 1 0 14.91758075693448 3.703758644512196 0.023164841460180965 0 1 0
1900 95 1 0 17.34169727151884 3.984758766730052 -0.1752853365506754 -1 0 1
532 27 1 0 16.58898511361016 4.075052266166405 0.6923500387324324 -1 -1 0
533 27 1 0 16.821750988843537 4.815089505367888 0.09448009274540708 -1 -1 0
534 27 1 0 16.33717572831437 5.013972848066152 0.9430442521336043 -1 -1 0
3140 157 1 0 17.487266286431257 5.012233606715735 0.9893187723750939 -1 1 0
7189 360 1 0 19.10521602579011 3.849974175309212 0.9035066372546535 0 1 0
6237 312 1 0 18.30622977570608 4.2465772692256305 0.3517899095324192 0 0 0
10781 1281 2 0 20.495518640402093 3.888688627782056 0.7405292357147009 -1 1 1
6235 312 1 0 20.175562746479848 4.300253294407579 -0.17083249253961658 0 0 0
6234 312 1 0 19.71193363778212 5.010955603586305 0.21427370086178488 0 0 0
6236 312 1 0 19.14438839542577 4.128357144750508 -0.17907698851570172 0 0 0
6231 312 1 0 0.11538728109913088 5.902057902918902 1.1667147038244698 1 0 0
6230 312 1 0 -0.021352656662586067 6.129111094477277 0.23924226931408243 1 0 0
6233 312 1 0 -0.4382253314263592 5.213676184682682 0.29040887806899734 1 0 0
5705 286 1 0 1.1688806138158463 5.905715504163228 0.5893239870011493 1 0 0
3029 152 1 0 2.2006493111130645 5.149168031410012 -0.06348791942529242 -1 1 0
3028 152 1 0 3.0852885498402496 5.338242565630213 0.07933748269477993 -1 1 0
3025 152 1 0 2.513778311001372 6.139922708896999 0.5349405068018241 -1 1 0
3723 187 1 0 3.5194421885138114 5.955004437964986 0.965804195011506 1 0 0
3724 187 1 0 4.418517922829765 5.691121492751073 0.9665037923485043 1 0 0
2638 132 1 0 3.8301400036606124 6.086970734331278 -0.14184840484637165 0 0 0
2627 132 1 0 5.743002424420545 5.781218125790697 0.13407105479013248 0 0 0
7349 368 1 0 6.569504450319955 5.221757269085569 0.66814128154496 0 0 1
7095 355 1 0 7.543260495096475 5.51281889628556 0.689345518217974 0 0 0
251 13 1 0 9.280583886985822 5.109944855446632 -0.08027331198242586 1 0 0
7094 355 1 0 8.335297269613525 6.001242789241027 0.6949481972873054 0 0 0
260 13 1 0 9.717266534397554 6.382543051408844 0.6213338506621128 1 0 0
3521 177 1 0 10.283871656938697 5.517605353426683 0.39468073121227937 0 0 0
3522 177 1 0 10.973604662572408 5.9457363654340325 -0.15856860440925966 0 0 0
3523 177 1 0 11.89664989854144 5.895937508493904 0.18937432026196907 0 0 0
241 13 1 0 11.114026575435597 5.237517954576152 1.1327453184500753 1 0 0
10997 1497 2 0 12.632661892148928 5.7355485729159055 0.8896294347795035 0 1 0
9640 482 1 0 14.481289909884449 5.651553231720407 1.2088391265212344 0 0 0
540 27 1 0 13.58366986376461 5.744571649138096 0.27391902233646787 -1 -1 0
9636 482 1 0 15.35140429308839 5.213401984565341 0.7910130812139136 0 0 0
9635 482 1 0 15.62381190129646 5.7493006460150875 0.11682608717486838 0 0 0
535 27 1 0 16.292188870904155 5.961017555051208 1.02701690785846 -1 -1 0
4640 232 1 0 17.035826999242214 5.800823742264558 0.34130460468273854 0 0 0
4639 232 1 0 17.314116322050825 6.175001224498724 1.1585547461185073 0 0 0
6239 312 1 0 18.131019812127477 5.70204781504736 0.213446538873521 0 0 0
3720 186 1 0 19.114156646673994 5.285924447690061 0.9888777514040653 0 0 1
3719 186 1 0 19.010412421763593 6.227671032717387 1.0572562298521633 0 0 1
8993 450 1 0 0.6277471435043681 6.802115352623095 0.7826124986807811 0 0 1
9866 494 1 0 0.1552942441221683 7.885003106446489 0.22430730396860585 1 1 0
9864 494 1 0 -0.4725777959969874 7.031684712623765 0.4575440069044884 1 1 0
8992 450 1 0 1.6229823069105813 6.883791494394454 0.7555702873623972 0 0 1
8991 450 1 0 1.227246208495016 7.337310676380844 0.0466615180207952 0 0 1
8988 450 1 0 3.38573531521826 6.980959636515352 -0.1045588085311481 0 0 1
8989 450 1 0 2.4975517312866953 7.516401008915881 -0.08886880015750007 0 0 1
3024 152 1 0 2.855465284059731 6.986383880017342 0.8496696220573364 -1 1 0
8987 450 1 0 4.147282102630291 6.915395776533959 0.4780148856680203 0 0 1
8986 450 1 0 5.07249683320503 6.775133807153482 0.6392303591375543 0 0 1
8985 450 1 0 5.374875769835744 7.559446470327473 0.19878975920662045 0 0 1
2616 131 1 0 7.328136265505751 6.55737366281122 0.3106169095610698 0 0 0
10921 1421 2 0 6.514346643732985 7.337425340643572 0.5899324968181815 1 0 0
6293 315 1 0 7.276099495501711 7.835747178384152 0.26188001587020304 0 0 0
5920 296 1 0 8.038782057287728 7.345950374462012 0.9149195156417116 0 1 1
5919 296 1 0 8.239547153995165 6.923994480486287 0.05147303170681365 0 1 1
5302 266 1 0 10.236627740234903 7.47443442564665 0.27941777106769283 0 0 1
5301 266 1 0 9.31241760754168 7.567009117601924 0.42160176892354445 0 0 1
258 13 1 0 10.90003128427129 6.672398539347407 0.6159498006918827 1 0 0
257 13 1 0 11.663097696111407 7.089393582390535 0.17948002796884596 1 0 0
7721 387 1 0 12.865490463294185 6.715051871444512 0.19443353283791118 1 1 0
10261 761 2 0 13.249879047326122 7.608219599947568 0.18652681835705337 -1 0 0
539 27 1 0 13.941229472253605 6.611895426418688 0.07963971748207699 -1 -1 0
106 6 1 0 14.36336187106204 7.800345362030794 0.26492854182011816 -1 -1 1
538 27 1 0 13.959766213998199 6.753749919423236 1.0244499679462788 -1 -1 0
10157 657 2 0 14.936057118119358 6.674186620762651 0.13690354831024393 0 0 1
2641 133 1 0 16.242192481142855 6.923299536720507 0.6409386043184834 0 0 0
9486 475 1 0 15.74611081046946 7.571403624852846 -0.11961654830658934 0 1 1
9483 475 1 0 16.885170349544072 7.775954827258965 0.6328547504533992 0 1 1
4638 232 1 0 18.06117336841571 6.536002684650886 0.7037090627669629 0 0 0
4637 232 1 0 18.49511588706257 7.414064706920752 0.7347686405428171 0 0 0
9881 495 1 0 17.753159300457376 7.796339203481705 0.06242499412194629 0 1 1
9863 494 1 0 19.821419397296545 6.495133307427885 0.4298696375682233 0 1 0
3716 186 1 0 19.551698968632532 7.42144644203024 0.6199047384551675 0 0 1
3714 186 1 0 -0.16619865502102404 8.560056610312435 1.1956695309101488 1 0 1
3713 186 1 0 0.5095268186629173 9.007358946386251 0.6298508468901929 1 0 1
9868 494 1 0 1.0168412432138405 8.721726640041586 -0.22663108414868172 1 1 0
9869 494 1 0 1.4378621121159214 8.4863204174023 0.5416815498760907 1 1 0
3705 186 1 0 2.3247480499311393 8.117802845968148 0.9473774522421936 1 0 1
3703 186 1 0 3.2262357025169104 8.007765366881129 0.45900233982237115 1 0 1
3704 186 1 0 2.5202445448530675 8.675572365804873 0.2318112510890983 1 0 1
3636 182 1 0 4.829316431030959 8.474499442417962 0.8132650851829983 0 0 0
4107 206 1 0 3.9375081313742646 8.939233122739987 0.5885791598956176 0 0 0
3372 169 1 0 4.360257451096733 8.265772423893816 -0.09190251483333019 0 0 1
6290 315 1 0 6.085758356141779 8.307335671297158 0.6282083704990273 0 0 0
1082 55 1 0 6.875958123857223 8.945384265107002 0.07276079629540821 0 0 0
6295 315 1 0 7.842509162665713 8.689722411257156 0.5529816278562502 0 0 0
6532 327 1 0 6.725336483792069 9.222374452306912 1.0314358516723308 0 1 0
6294 315 1 0 8.214853036949183 7.98135892819938 0.036910198345764915 0 0 0
9449 473 1 0 8.455538081661581 9.274467615638395 0.006861375852479625 0 1 1
6296 315 1 0 8.49604759033741 8.95750970714819 1.210054660107562 0 0 0
9447 473 1 0 9.185350696744093 8.581036009572678 0.38448653662913906 0 1 1
9445 473 1 0 10.165509678799243 8.829005931486977 0.060685909429621814 0 1 1
9446 473 1 0 9.817709752773936 8.92237304235979 1.0019090688005223 0 1 1
5303 266 1 0 11.067146703384154 7.962883629879143 0.5052336434429986 0 0 1
5304 266 1 0 11.773333950587094 8.596750311266483 0.5221043629546626 0 0 1
1295 65 1 0 10.949195605410209 9.224352326863466 0.9354793174676684 1 0 1
10856 1356 2 0 12.830572848382346 8.350798052856387 0.6540348262768089 1 0 1
107 6 1 0 14.741646560272375 8.605143923335627 -0.22241586679673664 -1 -1 1
4070 204 1 0 13.767261790108087 8.442894296115902 1.1611243810473126 -1 0 0
2646 133 1 0 14.957000773453153 8.516974500920524 1.154420603906397 0 0 0
9485 475 1 0 15.846447721201482 8.314769427345073 0.43007948026351206 0 1 1
2647 133 1 0 15.414559377184899 9.191185955778279 0.6766907737108242 0 0 0
9484 475 1 0 16.678107043758757 8.655149562993534 0.19544928095343436 0 1 1
9079 454 1 0 18.972281359190962 8.283181691933695 0.990937979708039 -1 0 0
9080 454 1 0 18.002172622544684 8.282757859191038 1.0334401033999627 -1 0 0
3715 186 1 0 20.03580618397887 8.24895725990055 0.8133808096298702 0 0 1
9078 454 1 0 19.444493907138646 9.184759601786483 1.1509094408040172 -1 0 0
9883 495 1 0 19.27477482531273 8.614489603424481 0.005309239047124241 0 1 1
9076 454 1 0 -0.4826726224765422 9.317600120278625 0.5538013592650078 0 0 0
3712 186 1 0 0.7145079317634241 9.941716571590808 0.40732738578727 1 0 1
9075 454 1 0 -0.2770406707364007 9.962200580054606 -0.06674385776596482 0 0 0
9870 494 1 0 1.7466489247853603 9.388479650153483 0.4050343466784263 1 1 0
3711 186 1 0 1.5581710826075277 10.361157960544558 0.18181540139743554 1 0 1
3708 186 1 0 2.120189983530204 10.201714507714245 1.0819760770488387 1 0 1
4105 206 1 0 2.586434050856583 10.047948854581737 -0.007239399848781684 0 0 0
3707 186 1 0 2.50936212292858 9.331942583159588 1.1050240640879427 1 0 1
4106 206 1 0 3.323643432197813 9.467580435135277 0.19970493763178643 0 0 0
1099 55 1 0 3.266363139629335 10.363566829824697 0.9945091074836114 0 0 0
4110 206 1 0 3.624980322214591 10.500230877751072 -0.0809317590172187 0 0 0
4108 206 1 0 4.13254408702977 9.89017133655418 0.724731347149044 0 0 0
3637 182 1 0 4.950220623702919 9.300938199686387 0.3631370847917328 0 0 0
4109 206 1 0 4.486857636177789 10.65390757294608 0.35083864141464377 0 0 0
1084 55 1 0 5.533455035102697 10.0696068599406 0.7862512404799205 0 0 0
1083 55 1 0 6.017548607646619 9.382902566223525 0.3699601785144824 0 0 0
1085 55 1 0 6.480411029208364 10.297655439605874 0.8628506441454805 0 0 0
3638 182 1 0 5.173787584510485 10.037549888567922 -0.178897835800836 0 0 0
6528 327 1 0 7.392572876715774 10.540487926280456 0.17001424852178726 0 1 0
6529 327 1 0 7.398715162004304 9.985403034412375 0.9230502194284664 0 1 0
6522 327 1 0 8.420515318261842 10.515124314473391 0.375473418308038 0 1 0
9448 473 1 0 9.171631683371556 9.522214760338787 0.6336724138438228 0 1 1
3812 191 1 0 9.616018148421428 10.31444953516252 0.13935214646200628 1 -1 0
1294 65 1 0 11.584367693807701 9.70082685615581 0.3267842133217371 1 0 1
1293 65 1 0 12.500042139269693 9.42605276718961 0.16844073807346363 1 0 1
9023 452 1 0 12.548545828806768 10.555361618605719 0.6784462219353501 -1 0 0
9022 452 1 0 13.464728179835678 10.608954449324957 1.041871601405567 -1 0 0
10943 1443 2 0 13.127603452526493 9.501265758456153 0.9299081722396484 -2 1 0
4064 204 1 0 14.627920855431956 9.671712113074388 1.0703149535833145 -1 0 0
4063 204 1 0 14.792127970918605 10.210123031008608 0.2474574552721588 -1 0 0
101 6 1 0 13.609757634827425 9.709869881503922 -0.12387296657538455 -1 -1 1
114 6 1 0 16.21396241862957 10.510941997267777 -0.027538156013622944 -1 -1 1
116 6 1 0 17.45112414217921 9.73510348368073 0.1281067038541372 -1 -1 1
115 6 1 0 16.615105911245035 9.97447963141452 0.6715635689734695 -1 -1 1
7561 379 1 0 18.448242846947572 9.317269542464377 -0.000864275545072442 -1 0 0
117 6 1 0 17.82108340738664 10.47617555741067 0.7075552626922432 -1 -1 1
2652 133 1 0 18.84281488836694 10.158463595558157 1.098309417958864 0 0 0
8588 430 1 0 20.491934562931068 10.695101653160357 0.9889020317134665 -1 0 0
10327 827 2 0 19.845210832525122 10.09405757035441 0.4010191501592988 -2 2 0
8586 430 1 0 0.45613626746831093 11.212293488982683 0.7330988511366794 0 0 0
9896 495 1 0 -0.35194530025715787 11.793677112393878 0.3034199832470208 1 1 1
3710 186 1 0 1.5991312739826236 11.036835331643317 0.9051173079158689 1 0 1
8585 430 1 0 0.9490648470001349 11.442224937673041 -0.06186345816692475 0 0 0
3177 159 1 0 1.8644954077238745 11.90931609458664 0.393678164203476 0 -1 0
10458 958 2 0 2.8491997814452463 11.059338800309147 0.40435889539960834 1 0 0
5855 293 1 0 3.0656718701260046 12.091790221289925 0.41735416599357994 0 0 1
4296 215 1 0 2.2896151285019744 11.772763807904404 1.1883180558241668 1 0 0
1100 55 1 0 3.807875786162411 11.155096850447475 1.0296318495710735 0 0 0
4285 215 1 0 4.205115617756876 11.47922441588618 -0.12235556778912593 1 0 0
1087 55 1 0 5.69003396894505 11.31935077627574 0.6409068846752323 0 0 0
7857 393 1 0 6.13953009173423 11.769434420422934 -0.20301744637371644 0 0 1
1088 55 1 0 6.359541943780672 12.003820651820346 0.9229666028434502 0 0 0
6527 327 1 0 6.797929109910543 11.227483184036872 0.3256343424249013 0 1 0
6526 327 1 0 7.4064919392333035 11.095840713527602 1.085885805308567 0 1 0
5899 295 1 0 7.387867684094479 12.089124822276458 0.6297918215222376 0 -1 1
6523 327 1 0 8.30992525121427 11.490820797718815 0.46608895890803165 0 1 0
3811 191 1 0 9.475532601147677 10.703967443048652 1.0220652626996989 1 -1 0
1299 65 1 0 10.562528053470112 10.749281608137974 1.0127568745889877 1 0 1
3818 191 1 0 10.236895560916903 12.028410789229772 0.9369642788004687 1 -1 0
3810 191 1 0 9.325067455353409 11.473769468903777 0.5915769332861693 1 -1 0
3816 191 1 0 10.240362879265222 11.228784222072335 0.007471767181932267 1 -1 0
3817 191 1 0 10.859475198424212 11.925095647286897 0.25854377017333724 1 -1 0
8924 447 1 0 13.05060376351247 11.634451546390544 0.0881889013091325 0 0 1
9021 452 1 0 14.430746295131678 10.775325923692387 1.1955359248337882 -1 0 0
10478 978 2 0 13.784514015321253 11.688624210324566 0.9371547877735615 0 0 2
4062 204 1 0 13.997875369198631 10.748717426548636 0.1089152910912003 -1 0 0
10829 1329 2 0 15.990790376548063 11.854104426643053 0.016089750283003197 0 1 1
7571 379 1 0 16.635455085617426 11.87118157398061 0.9611001122652424 -1 0 0
7568 379 1 0 17.353217919619787 11.876405562941805 0.15073004426341804 -1 0 0
7570 379 1 0 16.80468528847574 10.918356680367323 0.9425139068992653 -1 0 0
7569 379 1 0 17.18289325952536 10.965557043107646 0.07399907523980936 -1 0 0
7567 379 1 0 18.202763332713374 11.607771142382761 0.5322627284096707 -1 0 0
7565 379 1 0 18.90358403486736 10.716202809930126 0.08479404230154394 -1 0 0
10698 1198 2 0 20.245620614977213 10.930624718192924 -0.1456916764021906 1 1 0
7566 379 1 0 19.18102891965524 11.557461802470499 0.5504795305970835 -1 0 0
9899 495 1 0 -0.020483713688442373 12.631648925097249 0.7381409214784386 1 1 1
4294 215 1 0 1.4905978513179998 13.04036119563369 0.5414934515278779 1 0 0
5854 293 1 0 3.0505870034402642 12.907231146940143 0.9323543815038846 0 0 1
5856 293 1 0 3.9104961059941488 12.212514228925603 0.8027507851500814 0 0 1
5857 293 1 0 4.089585495261867 13.225576475217128 0.7302352318742187 0 0 1
2427 122 1 0 5.549346155332106 12.696475170561966 0.5583993998144218 0 0 1
7858 393 1 0 6.4945995806670975 12.645383825652038 -0.005032299388628197 0 0 1
7859 393 1 0 6.701797984428983 13.224694882926613 0.7157623185908583 0 0 1
5641 283 1 0 8.370356162839155 13.322179186186695 0.8963697103353353 0 0 0
5642 283 1 0 8.536250182859806 12.551331302856171 0.36525582426220404 0 0 0
10664 1164 2 0 9.440819701566404 12.58392669822925 0.8268896804183189 1 1 0
3819 191 1 0 10.619579167321318 12.801864477931659 0.5912688583813471 1 -1 0
8926 447 1 0 11.635059388284509 12.538452629276728 0.7109314172774193 0 0 1
8925 447 1 0 12.385654782045606 12.303558651076735 0.18924347144029677 0 0 1
8929 447 1 0 12.833937751734048 12.562181636661817 1.1263903276321123 0 0 1
10055 555 2 0 12.693017470048751 13.285110116869125 0.2870100725116502 0 0 -1
4077 204 1 0 13.697287016277587 13.220195768565242 1.1877870269998705 -1 0 0
4079 204 1 0 13.521276178990394 12.668605818556866 0.194114823687872 -1 0 0
4078 204 1 0 14.393309532428901 12.745134181963332 0.7349034602886708 -1 0 0
4794 240 1 0 15.516540621142614 13.114800711494798 0.33175607713374794 0 0 0
79 4 1 0 16.29912014707004 13.053020908891973 1.1950596405470257 -1 -1 0
4791 240 1 0 16.524055815576492 12.809627612694593 -0.016500228580936922 0 0 0
10309 809 2 0 17.275581513309078 13.164966751591374 0.595633103565175 0 -1 1
10393 893 2 0 18.956428128146996 12.622586287487033 0.5592409481535593 -2 -2 0
6908 346 1 0 18.11901064221494 12.976427037261907 -0.060717730336575966 -1 0 1
6907 346 1 0 19.052800286776094 13.400292562856198 -0.08323435899274195 -1 0 1
9897 495 1 0 19.851335239103488 12.173517382194655 0.05019525129732443 0 1 1
9898 495 1 0 20.097446447444636 12.553040145331535 0.9041596941055312 0 1 1
6904 346 1 0 20.17455448731634 13.126943421854106 -0.09127892325853361 -1 0 1
6902 346 1 0 -0.18735026847195718 13.671014265205379 0.4966808406660689 0 0 1
6901 346 1 0 0.6448244693927253 13.900491515542202 0.8965027035154824 0 0 1
4290 215 1 0 1.7304462889184467 14.426362660521125 0.1337319740789617 1 0 0
10926 1426 2 0 2.349064267560333 13.710533608604765 0.8413998918471985 1 0 0
5858 293 1 0 3.5739967861709516 13.913119304038018 0.22782729336616578 0 0 1
3856 193 1 0 3.3765608630937516 14.282011691140463 1.0966705584295988 0 0 1
3855 193 1 0 2.7137387215440225 14.904884171597285 0.9656539878300383 0 0 1
4289 215 1 0 2.678536231075269 14.374847484936096 -0.01374567123911686 1 0 0
3857 193 1 0 4.347182680068168 14.344547780094079 1.0430857213048448 0 0 1
2425 122 1 0 4.941854232059882 14.288391159255049 0.24731842665760578 0 0 1
2426 122 1 0 5.472227983050565 13.535719373659077 0.1403488121075549 0 0 1
2424 122 1 0 5.861026798244926 14.543514842419734 0.14163358763358663 0 0 1
2431 122 1 0 6.276441787285294 13.987461371307914 1.1500192864384151 0 0 1
7860 393 1 0 7.453320552472935 13.704383175935744 1.0920875431775192 0 0 1
2432 122 1 0 6.89737027884041 14.607296097081838 0.7741663182587395 0 0 1
7940 397 1 0 8.018341679008309 14.39937993616165 0.2609772798226857 0 0 1
5739 287 1 0 9.060516978774169 13.994389833751379 0.17050836575578043 0 0 0
7936 397 1 0 10.615054149430224 14.733479284024236 0.6384031919816558 0 0 1
7935 397 1 0 9.725927466230116 14.59988842200989 0.9352259765693022 0 0 1
5740 287 1 0 9.974241361645593 13.650632694596604 0.32214334175911447 0 0 0
7921 397 1 0 11.49057971626987 13.747785408579471 0.06853242941502015 0 0 1
7926 397 1 0 11.801162491686112 13.53669607488789 1.1420340942719867 0 0 1
7923 397 1 0 11.914971491078006 14.765942442328923 0.8746082604888169 0 0 1
7922 397 1 0 11.621586623952501 14.690207723144955 -0.0160464596347694 0 0 1
7924 397 1 0 12.70156381990352 14.233105586467259 0.7544166380603358 0 0 1
10474 974 2 0 14.068753323280204 14.71979624713818 0.559664765773346 -3 -1 2
9086 455 1 0 14.558563115556938 13.808627634842733 0.16891311048795868 -1 0 0
9085 455 1 0 14.591318727807886 14.022521809128827 1.1156470493618875 -1 0 0
10175 675 2 0 13.597215898149278 14.05407918548735 -0.1058365691224556 0 -1 0
4793 240 1 0 15.590062543845253 13.99583398840392 0.8526513916297759 0 0 0
9088 455 1 0 15.410975713631803 14.893994082928389 0.294078015453889 -1 0 0
4792 240 1 0 16.397744346966153 13.67511556604758 0.3215881700952479 0 0 0
1553 78 1 0 17.13644351377124 14.223485777333835 -0.15203811991354355 -2 0 0
1554 78 1 0 16.656536464919633 14.71476757795825 0.5122420494784949 -2 0 0
1552 78 1 0 17.760823416001315 14.09773177192746 0.6239087961754072 -2 0 0
1551 78 1 0 18.50094349303825 13.632143639739716 0.87615783058531 -2 0 0
7201 361 1 0 19.720520932922096 13.945949339086077 0.6865691910814947 0 0 0
6905 346 1 0 20.140288396064705 14.114794697604157 -0.1933442924705453 -1 0 1
3847 193 1 0 0.3333593243584846 15.194643259096365 0.9254779372118774 0 0 1
7745 388 1 0 0.08371853306092136 16.240066903889183 0.5449720684372859 1 0 0
4291 215 1 0 0.9384462941240118 14.943057590211618 0.1389481049315581 1 0 0